                         Program Version 4.0.1.2 - RELEASE -
|  1> ! RHF EOM-CCSD aug-cc-pVDZ VeryTightSCF # pal4
|  2> %maxcore 31000
|  3> %mdci
|  4> nroots 2
|  5> dorootwise true
|  6> dotdm true # do transition dipole moment?
|  7> followcis true # get the nroots states with the largest	overlap	with the initial CIS eigenstates
|  8> doleft true # if false, the oscillator strengths (intensities of absorption spectrum) are approximate, but less expensive
|  9> printlevel 3
| 10> ccsd2 true  # if it's false, the ground state is MP2 instead of ccsd
| 11> maxiter 100
| 12> end
| 13>
| 14> *xyz 0 1
| 15> C -0.7082136291 -0.0224975679 0.0000000000
| 16> C  0.7082136291  0.0224975679 0.0000000000
| 17> C -1.4467559950 -1.2680034548 0.0000000000
| 18> C  1.4467559950  1.2680034548 0.0000000000
| 19> C -2.8567868358 -1.2220216011 0.0000000000
| 20> C  2.8567868358  1.2220216011 0.0000000000
| 21> C -3.5378142542  0.0095703516 0.0000000000
| 22> C  3.5378142542 -0.0095703516 0.0000000000
| 23> C -0.7352690410 -2.4954878361 0.0000000000
| 24> C  0.7352690410  2.4954878361 0.0000000000
| 25> C -2.8107370271  1.1744562084 0.0000000000
| 26> C  2.8107370271 -1.1744562084 0.0000000000
| 27> N -1.4285926264  1.1864419459 0.0000000000
| 28> N  1.4285926264 -1.1864419459 0.0000000000
| 29> B -0.7495425733  2.5039775048 0.0000000000
| 30> B  0.7495425733 -2.5039775048 0.0000000000
| 31> H -1.3339133170 -3.4104522570 0.0000000000
| 32> H  1.3339133170  3.4104522570 0.0000000000
| 33> H -1.4668583058  3.4683430006 0.0000000000
| 34> H  1.4668583058 -3.4683430006 0.0000000000
| 35> H -3.4102684741 -2.1631636977 0.0000000000
| 36> H  3.4102684741  2.1631636977 0.0000000000
| 37> H -3.2686864293  2.1619299606 0.0000000000
| 38> H  3.2686864293 -2.1619299606 0.0000000000
| 39> H -4.6273230454  0.0578283722 0.0000000000
| 40> H  4.6273230454 -0.0578283722 0.0000000000
| 41> *
| 42>
| 43>
| 44>                          ****END OF INPUT****

CARTESIAN COORDINATES (ANGSTROEM)
---------------------------------
  C     -0.708214   -0.022498    0.000000
  C      0.708214    0.022498    0.000000
  C     -1.446756   -1.268003    0.000000
  C      1.446756    1.268003    0.000000
  C     -2.856787   -1.222022    0.000000
  C      2.856787    1.222022    0.000000
  C     -3.537814    0.009570    0.000000
  C      3.537814   -0.009570    0.000000
  C     -0.735269   -2.495488    0.000000
  C      0.735269    2.495488    0.000000
  C     -2.810737    1.174456    0.000000
  C      2.810737   -1.174456    0.000000
  N     -1.428593    1.186442    0.000000
  N      1.428593   -1.186442    0.000000
  B     -0.749543    2.503978    0.000000
  B      0.749543   -2.503978    0.000000
  H     -1.333913   -3.410452    0.000000
  H      1.333913    3.410452    0.000000
  H     -1.466858    3.468343    0.000000
  H      1.466858   -3.468343    0.000000
  H     -3.410268   -2.163164    0.000000
  H      3.410268    2.163164    0.000000
  H     -3.268686    2.161930    0.000000
  H      3.268686   -2.161930    0.000000
  H     -4.627323    0.057828    0.000000
  H      4.627323   -0.057828    0.000000

 Total Charge           Charge          ....    0
 Multiplicity           Mult            ....    1
 Number of Electrons    NEL             ....  106
 Basis Dimension        Dim             ....  458

ORBITAL ENERGIES
----------------

  NO   OCC          E(Eh)            E(eV)
   0   2.0000     -15.656918      -426.0464
   1   2.0000     -15.656918      -426.0464
   2   2.0000     -11.316314      -307.9326
   3   2.0000     -11.315251      -307.9036
   4   2.0000     -11.307629      -307.6962
   5   2.0000     -11.307629      -307.6962
   6   2.0000     -11.274103      -306.7839
   7   2.0000     -11.274103      -306.7839
   8   2.0000     -11.273004      -306.7540
   9   2.0000     -11.273004      -306.7540
  10   2.0000     -11.269750      -306.6655
  11   2.0000     -11.269749      -306.6655
  12   2.0000     -11.188400      -304.4518
  13   2.0000     -11.188400      -304.4518
  14   2.0000      -7.575446      -206.1384
  15   2.0000      -7.575446      -206.1384
  16   2.0000      -1.316079       -35.8123
  17   2.0000      -1.293224       -35.1904
  18   2.0000      -1.129817       -30.7439
  19   2.0000      -1.116945       -30.3936
  20   2.0000      -1.108629       -30.1673
  21   2.0000      -1.046754       -28.4836
  22   2.0000      -0.965928       -26.2842
  23   2.0000      -0.948621       -25.8133
  24   2.0000      -0.903236       -24.5783
  25   2.0000      -0.869014       -23.6471
  26   2.0000      -0.850396       -23.1405
  27   2.0000      -0.818255       -22.2659
  28   2.0000      -0.757180       -20.6039
  29   2.0000      -0.746640       -20.3171
  30   2.0000      -0.713280       -19.4093
  31   2.0000      -0.694228       -18.8909
  32   2.0000      -0.666700       -18.1418
  33   2.0000      -0.665494       -18.1090
  34   2.0000      -0.649246       -17.6669
  35   2.0000      -0.614414       -16.7191
  36   2.0000      -0.610480       -16.6120
  37   2.0000      -0.604275       -16.4431
  38   2.0000      -0.569181       -15.4882
  39   2.0000      -0.568239       -15.4626
  40   2.0000      -0.567376       -15.4391
  41   2.0000      -0.549701       -14.9581
  42   2.0000      -0.539242       -14.6735
  43   2.0000      -0.526409       -14.3243
  44   2.0000      -0.476390       -12.9632
  45   2.0000      -0.472768       -12.8647
  46   2.0000      -0.465449       -12.6655
  47   2.0000      -0.460457       -12.5297
  48   2.0000      -0.428810       -11.6685
  49   2.0000      -0.426126       -11.5955
  50   2.0000      -0.351987        -9.5781
  51   2.0000      -0.291638        -7.9359
  52   2.0000      -0.220721        -6.0061
  53   0.0000       0.003877         0.1055
  54   0.0000       0.029997         0.8163
  55   0.0000       0.030202         0.8218
  56   0.0000       0.036971         1.0060
  57   0.0000       0.046782         1.2730

E(0)                                       ...   -618.604309872
E(0)                                       ...   -618.604309872
E(CORR)                                    ...     -2.158624036
E(TOT)                                     ...   -620.762933908

MULLIKEN ATOMIC CHARGES
-----------------------
   0 C :   -0.580255
   1 C :   -0.580254
   2 C :    0.087238
   3 C :    0.087238
   4 C :    0.399428
   5 C :    0.399429
   6 C :    0.383966
   7 C :    0.383966
   8 C :    1.900172
   9 C :    1.900172
  10 C :    0.774094
  11 C :    0.774094
  12 N :   -0.365550
  13 N :   -0.365550
  14 B :   -0.670057
  15 B :   -0.670057
  16 H :   -0.762556
  17 H :   -0.762556
  18 H :    0.492172
  19 H :    0.492172
  20 H :   -0.571463
  21 H :   -0.571463
  22 H :   -0.677098
  23 H :   -0.677098
  24 H :   -0.410094
  25 H :   -0.410094
Sum of atomic charges:    0.0000000

LOEWDIN ATOMIC CHARGES
----------------------
   0 C :   -0.013133
   1 C :   -0.013133
   2 C :   -0.182307
   3 C :   -0.182307
   4 C :    0.086632
   5 C :    0.086632
   6 C :    0.032538
   7 C :    0.032538
   8 C :    0.023389
   9 C :    0.023389
  10 C :    0.050681
  11 C :    0.050681
  12 N :    0.007226
  13 N :    0.007226
  14 B :   -0.019138
  15 B :   -0.019138
  16 H :   -0.029320
  17 H :   -0.029320
  18 H :   -0.011608
  19 H :   -0.011608
  20 H :    0.020992
  21 H :    0.020992
  22 H :    0.018707
  23 H :    0.018707
  24 H :    0.015341
  25 H :    0.015341

  Mayer bond orders larger than 0.1
B(  0-C ,  1-C ) :   2.8162 B(  0-C ,  2-C ) :   0.9512 B(  0-C ,  4-C ) :  -0.7011
B(  0-C ,  5-C ) :   0.1354 B(  0-C ,  8-C ) :  -0.5388 B(  0-C ,  9-C ) :   0.1469
B(  0-C , 10-C ) :   0.1123 B(  0-C , 11-C ) :  -0.1163 B(  0-C , 12-N ) :   0.3152
B(  0-C , 13-N ) :  -0.4453 B(  0-C , 14-B ) :  -0.2139 B(  0-C , 15-B ) :  -0.3402
B(  0-C , 16-H ) :   0.3916 B(  0-C , 18-H ) :  -0.3788 B(  0-C , 20-H ) :   0.1346
B(  0-C , 22-H ) :   0.1889 B(  1-C ,  3-C ) :   0.9512 B(  1-C ,  4-C ) :   0.1354
B(  1-C ,  5-C ) :  -0.7011 B(  1-C ,  8-C ) :   0.1469 B(  1-C ,  9-C ) :  -0.5388
B(  1-C , 10-C ) :  -0.1163 B(  1-C , 11-C ) :   0.1123 B(  1-C , 12-N ) :  -0.4453
B(  1-C , 13-N ) :   0.3152 B(  1-C , 14-B ) :  -0.3402 B(  1-C , 15-B ) :  -0.2139
B(  1-C , 17-H ) :   0.3916 B(  1-C , 19-H ) :  -0.3788 B(  1-C , 21-H ) :   0.1346
B(  1-C , 23-H ) :   0.1889 B(  2-C ,  3-C ) :   0.3428 B(  2-C ,  4-C ) :   1.1297
B(  2-C ,  5-C ) :  -0.1334 B(  2-C ,  6-C ) :   0.2632 B(  2-C ,  8-C ) :   1.5402
B(  2-C ,  9-C ) :  -0.2104 B(  2-C , 12-N ) :  -0.1980 B(  2-C , 13-N ) :   0.3531
B(  2-C , 15-B ) :   0.4051 B(  2-C , 16-H ) :   0.7670 B(  2-C , 20-H ) :   0.7444
B(  2-C , 24-H ) :   0.1629 B(  3-C ,  4-C ) :  -0.1334 B(  3-C ,  5-C ) :   1.1297
B(  3-C ,  7-C ) :   0.2632 B(  3-C ,  8-C ) :  -0.2104 B(  3-C ,  9-C ) :   1.5402
B(  3-C , 12-N ) :   0.3531 B(  3-C , 13-N ) :  -0.1980 B(  3-C , 14-B ) :   0.4051
B(  3-C , 17-H ) :   0.7670 B(  3-C , 21-H ) :   0.7444 B(  3-C , 25-H ) :   0.1629
B(  4-C ,  6-C ) :   1.3305 B(  4-C ,  8-C ) :  -0.2203 B(  4-C ,  9-C ) :   0.1220
B(  4-C , 10-C ) :   0.1916 B(  4-C , 20-H ) :  -0.4518 B(  4-C , 22-H ) :   0.1357
B(  4-C , 24-H ) :   0.2846 B(  5-C ,  7-C ) :   1.3305 B(  5-C ,  8-C ) :   0.1220
B(  5-C ,  9-C ) :  -0.2203 B(  5-C , 11-C ) :   0.1916 B(  5-C , 21-H ) :  -0.4518
B(  5-C , 23-H ) :   0.1357 B(  5-C , 25-H ) :   0.2846 B(  6-C ,  8-C ) :   0.1042
B(  6-C , 10-C ) :   1.5878 B(  6-C , 12-N ) :  -0.3470 B(  6-C , 20-H ) :   0.3468
B(  6-C , 22-H ) :   0.2673 B(  6-C , 24-H ) :   0.2977 B(  7-C ,  9-C ) :   0.1042
B(  7-C , 11-C ) :   1.5878 B(  7-C , 13-N ) :  -0.3470 B(  7-C , 21-H ) :   0.3468
B(  7-C , 23-H ) :   0.2673 B(  7-C , 25-H ) :   0.2977 B(  8-C ,  9-C ) :   0.2979
B(  8-C , 11-C ) :  -0.1618 B(  8-C , 13-N ) :  -0.2289 B(  8-C , 15-B ) :   0.6888
B(  8-C , 16-H ) :  -0.4939 B(  9-C , 10-C ) :  -0.1618 B(  9-C , 12-N ) :  -0.2289
B(  9-C , 14-B ) :   0.6888 B(  9-C , 17-H ) :  -0.4939 B( 10-C , 12-N ) :   1.1079
B( 10-C , 14-B ) :   0.2793 B( 10-C , 18-H ) :   0.2014 B( 10-C , 20-H ) :  -0.1013
B( 10-C , 22-H ) :   0.1369 B( 11-C , 13-N ) :   1.1079 B( 11-C , 15-B ) :   0.2793
B( 11-C , 19-H ) :   0.2014 B( 11-C , 21-H ) :  -0.1013 B( 11-C , 23-H ) :   0.1369
B( 12-N , 14-B ) :   1.1123 B( 12-N , 18-H ) :   0.1032 B( 12-N , 22-H ) :  -0.1608
B( 13-N , 15-B ) :   1.1123 B( 13-N , 19-H ) :   0.1032 B( 13-N , 23-H ) :  -0.1608
B( 14-B , 17-H ) :  -0.4675 B( 14-B , 18-H ) :   0.7325 B( 15-B , 16-H ) :  -0.4675
B( 15-B , 19-H ) :   0.7325

ORCA finished by error termination in population analysis

-----------------------------------------------------------------------------
         ABSORPTION SPECTRUM VIA TRANSITION ELECTRIC DIPOLE MOMENTS
-----------------------------------------------------------------------------
State   Energy  Wavelength   fosc         T2         TX        TY        TZ
        (cm-1)    (nm)                  (au**2)     (au)      (au)      (au)
-----------------------------------------------------------------------------
   1   23900.1    418.4   0.365823366   5.03903   1.92441   1.15552   0.00000
   2   27930.2    358.0   0.000000000   0.00000   0.00000   0.00000   0.00000

FINAL SINGLE POINT ENERGY      -620.762933907545

DIPOLE MOMENT
-------------
                                X             Y             Z
Electronic contribution:      0.00000       0.00000      -0.00000
Nuclear contribution   :      0.00000       0.00000       0.00000
                        -----------------------------------------
Total Dipole Moment    :      0.00000       0.00000      -0.00000
                        -----------------------------------------
Magnitude (a.u.)       :      0.00000
Magnitude (Debye)      :      0.00000

                             ****ORCA TERMINATED NORMALLY****
TOTAL RUN TIME: 90 days 9 hours 16 minutes 24 seconds 410 msec
