 Gaussian 16, Revision A.03,

 -----------------------------------------------------
 #p #ccsd/aug-cc-pvtz density nosymm scf=tight out=wfn
 -----------------------------------------------------

 -------------------
 Title Card Required
 -------------------
 Symbolic Z-matrix:
 Charge =  0 Multiplicity = 2

 SCF Done:  E(UHF) =  -92.2354555583     A.U. after   18 cycles
 E2 =    -0.2782808927D+00 EUMP2 =    -0.92513736451018D+02
 Normal termination of Gaussian 16 at Tue Feb  6 19:13:41 2018.
 Gaussian 16:  ES64L-G16RevA.03 25-Dec-2016

 ----------------------------------------------------------------------
 #p Guess=(Save,Only,NaturalOrbitals) Geom=AllCheck ChkBasis Density=(C
 heck,current) nosymm
 ----------------------------------------------------------------------

 Structure from the checkpoint file:  "ccsd.chk"
 -------------------
 Title Card Required
 -------------------
 Charge =  0 Multiplicity = 2

                          Input orientation:
 ---------------------------------------------------------------------
 Center     Atomic      Atomic             Coordinates (Angstroms)
 Number     Number       Type             X           Y           Z
 ---------------------------------------------------------------------
      1          6           0        0.000000    0.000000    0.412728
      2          7           0        0.000000    0.000000    1.587272
 ---------------------------------------------------------------------

 Alpha  occ. eigenvalues --  -15.60662 -11.35883  -1.24226  -0.74303  -0.56737
 Alpha  occ. eigenvalues --   -0.51952  -0.51952
 Alpha virt. eigenvalues --    0.06790   0.07320   0.07969   0.07969   0.12990
 Alpha virt. eigenvalues --    0.12990   0.15505   0.20361   0.20361   0.25600
 Alpha virt. eigenvalues --    0.28889   0.28889   0.35462   0.40443   0.40443

  Beta  occ. eigenvalues --  -15.63229 -11.30323  -1.25467  -0.62179  -0.53851
  Beta  occ. eigenvalues --   -0.53851
  Beta virt. eigenvalues --   -0.03810   0.07322   0.07527   0.07527   0.10091
  Beta virt. eigenvalues --    0.15676   0.15676   0.16323   0.21621   0.21621
  Beta virt. eigenvalues --    0.26119   0.29859   0.29859   0.36808   0.39870

 Mulliken charges and spin densities:
               1          2
     1  C    0.096160   0.907965
     2  N   -0.096160   0.092035
 Sum of Mulliken charges =  -0.00000   1.00000

 Dipole moment (field-independent basis, Debye):
    X=              0.0000    Y=              0.0000    Z=             -1.5557  Tot=              1.5557
 Quadrupole moment (field-independent basis, Debye-Ang):
   XX=            -11.0436   YY=            -11.0436   ZZ=            -13.6578
   XY=             -0.0000   XZ=              0.0000   YZ=              0.0000

 Normal termination of Gaussian 16 at Tue Feb  6 19:13:42 2018.
